# vtk DataFile Version 3.0
vtk output
ASCII
DATASET UNSTRUCTURED_GRID
POINTS 121 double
0 0 0 0.1 0 0 0.2 0 0 0.3 0 0 0.4 0 0 0.5 0 0 0.6 0 0 0.7 0 0 0.8 0 0 0.9 0 0 1 0 0 0 0.1 0 0.1 0.1 0 0.2 0.1 0 0.3 0.1 0 0.4 0.1 0 0.5 0.1 0 0.6 0.1 0 0.7 0.1 0 0.8 0.1 0 0.9 0.1 0 1 0.1 0 0 0.2 0 0.1 0.2 0 0.2 0.2 0 0.3 0.2 0 0.4 0.2 0 0.5 0.2 0 0.6 0.2 0 0.7 0.2 0 0.8 0.2 0 0.9 0.2 0 1 0.2 0 0 0.3 0 0.1 0.3 0 0.2 0.3 0 0.3 0.3 0 0.4 0.3 0 0.5 0.3 0 0.6 0.3 0 0.7 0.3 0 0.8 0.3 0 0.9 0.3 0 1 0.3 0 0 0.4 0 0.1 0.4 0 0.2 0.4 0 0.3 0.4 0 0.4 0.4 0 0.5 0.4 0 0.6 0.4 0 0.7 0.4 0 0.8 0.4 0 0.9 0.4 0 1 0.4 0 0 0.5 0 0.1 0.5 0 0.2 0.5 0 0.3 0.5 0 0.4 0.5 0 0.5 0.5 0 0.6 0.5 0 0.7 0.5 0 0.8 0.5 0 0.9 0.5 0 1 0.5 0 0 0.6 0 0.1 0.6 0 0.2 0.6 0 0.3 0.6 0 0.4 0.6 0 0.5 0.6 0 0.6 0.6 0 0.7 0.6 0 0.8 0.6 0 0.9 0.6 0 1 0.6 0 0 0.7 0 0.1 0.7 0 0.2 0.7 0 0.3 0.7 0 0.4 0.7 0 0.5 0.7 0 0.6 0.7 0 0.7 0.7 0 0.8 0.7 0 0.9 0.7 0 1 0.7 0 0 0.8 0 0.1 0.8 0 0.2 0.8 0 0.3 0.8 0 0.4 0.8 0 0.5 0.8 0 0.6 0.8 0 0.7 0.8 0 0.8 0.8 0 0.9 0.8 0 1 0.8 0 0 0.9 0 0.1 0.9 0 0.2 0.9 0 0.3 0.9 0 0.4 0.9 0 0.5 0.9 0 0.6 0.9 0 0.7 0.9 0 0.8 0.9 0 0.9 0.9 0 1 0.9 0 0 1 0 0.1 1 0 0.2 1 0 0.3 1 0 0.4 1 0 0.5 1 0 0.6 1 0 0.7 1 0 0.8 1 0 0.9 1 0 1 1 0 
CELLS 100 500
4 0 1 12 11 4 1 2 13 12 4 2 3 14 13 4 3 4 15 14 4 4 5 16 15 4 5 6 17 16 4 6 7 18 17 4 7 8 19 18 4 8 9 20 19 4 9 10 21 20 4 11 12 23 22 4 12 13 24 23 4 13 14 25 24 4 14 15 26 25 4 15 16 27 26 4 16 17 28 27 4 17 18 29 28 4 18 19 30 29 4 19 20 31 30 4 20 21 32 31 4 22 23 34 33 4 23 24 35 34 4 24 25 36 35 4 25 26 37 36 4 26 27 38 37 4 27 28 39 38 4 28 29 40 39 4 29 30 41 40 4 30 31 42 41 4 31 32 43 42 4 33 34 45 44 4 34 35 46 45 4 35 36 47 46 4 36 37 48 47 4 37 38 49 48 4 38 39 50 49 4 39 40 51 50 4 40 41 52 51 4 41 42 53 52 4 42 43 54 53 4 44 45 56 55 4 45 46 57 56 4 46 47 58 57 4 47 48 59 58 4 48 49 60 59 4 49 50 61 60 4 50 51 62 61 4 51 52 63 62 4 52 53 64 63 4 53 54 65 64 4 55 56 67 66 4 56 57 68 67 4 57 58 69 68 4 58 59 70 69 4 59 60 71 70 4 60 61 72 71 4 61 62 73 72 4 62 63 74 73 4 63 64 75 74 4 64 65 76 75 4 66 67 78 77 4 67 68 79 78 4 68 69 80 79 4 69 70 81 80 4 70 71 82 81 4 71 72 83 82 4 72 73 84 83 4 73 74 85 84 4 74 75 86 85 4 75 76 87 86 4 77 78 89 88 4 78 79 90 89 4 79 80 91 90 4 80 81 92 91 4 81 82 93 92 4 82 83 94 93 4 83 84 95 94 4 84 85 96 95 4 85 86 97 96 4 86 87 98 97 4 88 89 100 99 4 89 90 101 100 4 90 91 102 101 4 91 92 103 102 4 92 93 104 103 4 93 94 105 104 4 94 95 106 105 4 95 96 107 106 4 96 97 108 107 4 97 98 109 108 4 99 100 111 110 4 100 101 112 111 4 101 102 113 112 4 102 103 114 113 4 103 104 115 114 4 104 105 116 115 4 105 106 117 116 4 106 107 118 117 4 107 108 119 118 4 108 109 120 119 
CELL_TYPES 100
7 7 7 7 7 7 7 7 7 7 7 7 7 7 7 7 7 7 7 7 7 7 7 7 7 7 7 7 7 7 7 7 7 7 7 7 7 7 7 7 7 7 7 7 7 7 7 7 7 7 7 7 7 7 7 7 7 7 7 7 7 7 7 7 7 7 7 7 7 7 7 7 7 7 7 7 7 7 7 7 7 7 7 7 7 7 7 7 7 7 7 7 7 7 7 7 7 7 7 7 
POINT_DATA 121
CELL_DATA 100
SCALARS cell_data double 1
LOOKUP_TABLE default
0.005 0.025 0.065 0.125 0.205 0.305 0.425 0.565 0.725 0.905 0.025 0.045 0.085 0.145 0.225 0.325 0.445 0.585 0.745 0.925 0.065 0.085 0.125 0.185 0.265 0.365 0.485 0.625 0.785 0.965 0.125 0.145 0.185 0.245 0.325 0.425 0.545 0.685 0.845 1.025 0.205 0.225 0.265 0.325 0.405 0.505 0.625 0.765 0.925 1.105 0.305 0.325 0.365 0.425 0.505 0.605 0.725 0.865 1.025 1.205 0.425 0.445 0.485 0.545 0.625 0.725 0.845 0.985 1.145 1.325 0.565 0.585 0.625 0.685 0.765 0.865 0.985 1.125 1.285 1.465 0.725 0.745 0.785 0.845 0.925 1.025 1.145 1.285 1.445 1.625 0.905 0.925 0.965 1.025 1.105 1.205 1.325 1.465 1.625 1.805 
