# vtk DataFile Version 3.0
vtk output
ASCII
DATASET UNSTRUCTURED_GRID
POINTS 125 double
0 0 0 0.25 0 0 0.5 0 0 0.75 0 0 1 0 0 0 0.25 0 0.25 0.25 0 0.5 0.25 0 0.75 0.25 0 1 0.25 0 0 0.5 0 0.25 0.5 0 0.5 0.5 0 0.75 0.5 0 1 0.5 0 0 0.75 0 0.25 0.75 0 0.5 0.75 0 0.75 0.75 0 1 0.75 0 0 1 0 0.25 1 0 0.5 1 0 0.75 1 0 1 1 0 0 0 0.25 0.25 0 0.25 0.5 0 0.25 0.75 0 0.25 1 0 0.25 0 0.25 0.25 0.25 0.25 0.25 0.5 0.25 0.25 0.75 0.25 0.25 1 0.25 0.25 0 0.5 0.25 0.25 0.5 0.25 0.5 0.5 0.25 0.75 0.5 0.25 1 0.5 0.25 0 0.75 0.25 0.25 0.75 0.25 0.5 0.75 0.25 0.75 0.75 0.25 1 0.75 0.25 0 1 0.25 0.25 1 0.25 0.5 1 0.25 0.75 1 0.25 1 1 0.25 0 0 0.5 0.25 0 0.5 0.5 0 0.5 0.75 0 0.5 1 0 0.5 0 0.25 0.5 0.25 0.25 0.5 0.5 0.25 0.5 0.75 0.25 0.5 1 0.25 0.5 0 0.5 0.5 0.25 0.5 0.5 0.5 0.5 0.5 0.75 0.5 0.5 1 0.5 0.5 0 0.75 0.5 0.25 0.75 0.5 0.5 0.75 0.5 0.75 0.75 0.5 1 0.75 0.5 0 1 0.5 0.25 1 0.5 0.5 1 0.5 0.75 1 0.5 1 1 0.5 0 0 0.75 0.25 0 0.75 0.5 0 0.75 0.75 0 0.75 1 0 0.75 0 0.25 0.75 0.25 0.25 0.75 0.5 0.25 0.75 0.75 0.25 0.75 1 0.25 0.75 0 0.5 0.75 0.25 0.5 0.75 0.5 0.5 0.75 0.75 0.5 0.75 1 0.5 0.75 0 0.75 0.75 0.25 0.75 0.75 0.5 0.75 0.75 0.75 0.75 0.75 1 0.75 0.75 0 1 0.75 0.25 1 0.75 0.5 1 0.75 0.75 1 0.75 1 1 0.75 0 0 1 0.25 0 1 0.5 0 1 0.75 0 1 1 0 1 0 0.25 1 0.25 0.25 1 0.5 0.25 1 0.75 0.25 1 1 0.25 1 0 0.5 1 0.25 0.5 1 0.5 0.5 1 0.75 0.5 1 1 0.5 1 0 0.75 1 0.25 0.75 1 0.5 0.75 1 0.75 0.75 1 1 0.75 1 0 1 1 0.25 1 1 0.5 1 1 0.75 1 1 1 1 1 
CELLS 64 2048
31 6 4 5 6 1 0 4 26 31 30 25 4 1 26 25 0 4 6 31 26 1 4 5 30 31 6 4 0 25 30 5 31 6 4 6 7 2 1 4 27 32 31 26 4 2 27 26 1 4 7 32 27 2 4 6 31 32 7 4 1 26 31 6 31 6 4 7 8 3 2 4 28 33 32 27 4 3 28 27 2 4 8 33 28 3 4 7 32 33 8 4 2 27 32 7 31 6 4 8 9 4 3 4 29 34 33 28 4 4 29 28 3 4 9 34 29 4 4 8 33 34 9 4 3 28 33 8 31 6 4 10 11 6 5 4 31 36 35 30 4 6 31 30 5 4 11 36 31 6 4 10 35 36 11 4 5 30 35 10 31 6 4 11 12 7 6 4 32 37 36 31 4 7 32 31 6 4 12 37 32 7 4 11 36 37 12 4 6 31 36 11 31 6 4 12 13 8 7 4 33 38 37 32 4 8 33 32 7 4 13 38 33 8 4 12 37 38 13 4 7 32 37 12 31 6 4 13 14 9 8 4 34 39 38 33 4 9 34 33 8 4 14 39 34 9 4 13 38 39 14 4 8 33 38 13 31 6 4 15 16 11 10 4 36 41 40 35 4 11 36 35 10 4 16 41 36 11 4 15 40 41 16 4 10 35 40 15 31 6 4 16 17 12 11 4 37 42 41 36 4 12 37 36 11 4 17 42 37 12 4 16 41 42 17 4 11 36 41 16 31 6 4 17 18 13 12 4 38 43 42 37 4 13 38 37 12 4 18 43 38 13 4 17 42 43 18 4 12 37 42 17 31 6 4 18 19 14 13 4 39 44 43 38 4 14 39 38 13 4 19 44 39 14 4 18 43 44 19 4 13 38 43 18 31 6 4 20 21 16 15 4 41 46 45 40 4 16 41 40 15 4 21 46 41 16 4 20 45 46 21 4 15 40 45 20 31 6 4 21 22 17 16 4 42 47 46 41 4 17 42 41 16 4 22 47 42 17 4 21 46 47 22 4 16 41 46 21 31 6 4 22 23 18 17 4 43 48 47 42 4 18 43 42 17 4 23 48 43 18 4 22 47 48 23 4 17 42 47 22 31 6 4 23 24 19 18 4 44 49 48 43 4 19 44 43 18 4 24 49 44 19 4 23 48 49 24 4 18 43 48 23 31 6 4 25 30 31 26 4 51 56 55 50 4 26 51 50 25 4 31 56 51 26 4 30 55 56 31 4 25 50 55 30 31 6 4 26 31 32 27 4 52 57 56 51 4 27 52 51 26 4 32 57 52 27 4 31 56 57 32 4 26 51 56 31 31 6 4 27 32 33 28 4 53 58 57 52 4 28 53 52 27 4 33 58 53 28 4 32 57 58 33 4 27 52 57 32 31 6 4 28 33 34 29 4 54 59 58 53 4 29 54 53 28 4 34 59 54 29 4 33 58 59 34 4 28 53 58 33 31 6 4 30 35 36 31 4 56 61 60 55 4 31 56 55 30 4 36 61 56 31 4 35 60 61 36 4 30 55 60 35 31 6 4 31 36 37 32 4 57 62 61 56 4 32 57 56 31 4 37 62 57 32 4 36 61 62 37 4 31 56 61 36 31 6 4 32 37 38 33 4 58 63 62 57 4 33 58 57 32 4 38 63 58 33 4 37 62 63 38 4 32 57 62 37 31 6 4 33 38 39 34 4 59 64 63 58 4 34 59 58 33 4 39 64 59 34 4 38 63 64 39 4 33 58 63 38 31 6 4 35 40 41 36 4 61 66 65 60 4 36 61 60 35 4 41 66 61 36 4 40 65 66 41 4 35 60 65 40 31 6 4 36 41 42 37 4 62 67 66 61 4 37 62 61 36 4 42 67 62 37 4 41 66 67 42 4 36 61 66 41 31 6 4 37 42 43 38 4 63 68 67 62 4 38 63 62 37 4 43 68 63 38 4 42 67 68 43 4 37 62 67 42 31 6 4 38 43 44 39 4 64 69 68 63 4 39 64 63 38 4 44 69 64 39 4 43 68 69 44 4 38 63 68 43 31 6 4 40 45 46 41 4 66 71 70 65 4 41 66 65 40 4 46 71 66 41 4 45 70 71 46 4 40 65 70 45 31 6 4 41 46 47 42 4 67 72 71 66 4 42 67 66 41 4 47 72 67 42 4 46 71 72 47 4 41 66 71 46 31 6 4 42 47 48 43 4 68 73 72 67 4 43 68 67 42 4 48 73 68 43 4 47 72 73 48 4 42 67 72 47 31 6 4 43 48 49 44 4 69 74 73 68 4 44 69 68 43 4 49 74 69 44 4 48 73 74 49 4 43 68 73 48 31 6 4 50 55 56 51 4 76 81 80 75 4 51 76 75 50 4 56 81 76 51 4 55 80 81 56 4 50 75 80 55 31 6 4 51 56 57 52 4 77 82 81 76 4 52 77 76 51 4 57 82 77 52 4 56 81 82 57 4 51 76 81 56 31 6 4 52 57 58 53 4 78 83 82 77 4 53 78 77 52 4 58 83 78 53 4 57 82 83 58 4 52 77 82 57 31 6 4 53 58 59 54 4 79 84 83 78 4 54 79 78 53 4 59 84 79 54 4 58 83 84 59 4 53 78 83 58 31 6 4 55 60 61 56 4 81 86 85 80 4 56 81 80 55 4 61 86 81 56 4 60 85 86 61 4 55 80 85 60 31 6 4 56 61 62 57 4 82 87 86 81 4 57 82 81 56 4 62 87 82 57 4 61 86 87 62 4 56 81 86 61 31 6 4 57 62 63 58 4 83 88 87 82 4 58 83 82 57 4 63 88 83 58 4 62 87 88 63 4 57 82 87 62 31 6 4 58 63 64 59 4 84 89 88 83 4 59 84 83 58 4 64 89 84 59 4 63 88 89 64 4 58 83 88 63 31 6 4 60 65 66 61 4 86 91 90 85 4 61 86 85 60 4 66 91 86 61 4 65 90 91 66 4 60 85 90 65 31 6 4 61 66 67 62 4 87 92 91 86 4 62 87 86 61 4 67 92 87 62 4 66 91 92 67 4 61 86 91 66 31 6 4 62 67 68 63 4 88 93 92 87 4 63 88 87 62 4 68 93 88 63 4 67 92 93 68 4 62 87 92 67 31 6 4 63 68 69 64 4 89 94 93 88 4 64 89 88 63 4 69 94 89 64 4 68 93 94 69 4 63 88 93 68 31 6 4 65 70 71 66 4 91 96 95 90 4 66 91 90 65 4 71 96 91 66 4 70 95 96 71 4 65 90 95 70 31 6 4 66 71 72 67 4 92 97 96 91 4 67 92 91 66 4 72 97 92 67 4 71 96 97 72 4 66 91 96 71 31 6 4 67 72 73 68 4 93 98 97 92 4 68 93 92 67 4 73 98 93 68 4 72 97 98 73 4 67 92 97 72 31 6 4 68 73 74 69 4 94 99 98 93 4 69 94 93 68 4 74 99 94 69 4 73 98 99 74 4 68 93 98 73 31 6 4 75 80 81 76 4 101 106 105 100 4 76 101 100 75 4 81 106 101 76 4 80 105 106 81 4 75 100 105 80 31 6 4 76 81 82 77 4 102 107 106 101 4 77 102 101 76 4 82 107 102 77 4 81 106 107 82 4 76 101 106 81 31 6 4 77 82 83 78 4 103 108 107 102 4 78 103 102 77 4 83 108 103 78 4 82 107 108 83 4 77 102 107 82 31 6 4 78 83 84 79 4 104 109 108 103 4 79 104 103 78 4 84 109 104 79 4 83 108 109 84 4 78 103 108 83 31 6 4 80 85 86 81 4 106 111 110 105 4 81 106 105 80 4 86 111 106 81 4 85 110 111 86 4 80 105 110 85 31 6 4 81 86 87 82 4 107 112 111 106 4 82 107 106 81 4 87 112 107 82 4 86 111 112 87 4 81 106 111 86 31 6 4 82 87 88 83 4 108 113 112 107 4 83 108 107 82 4 88 113 108 83 4 87 112 113 88 4 82 107 112 87 31 6 4 83 88 89 84 4 109 114 113 108 4 84 109 108 83 4 89 114 109 84 4 88 113 114 89 4 83 108 113 88 31 6 4 85 90 91 86 4 111 116 115 110 4 86 111 110 85 4 91 116 111 86 4 90 115 116 91 4 85 110 115 90 31 6 4 86 91 92 87 4 112 117 116 111 4 87 112 111 86 4 92 117 112 87 4 91 116 117 92 4 86 111 116 91 31 6 4 87 92 93 88 4 113 118 117 112 4 88 113 112 87 4 93 118 113 88 4 92 117 118 93 4 87 112 117 92 31 6 4 88 93 94 89 4 114 119 118 113 4 89 114 113 88 4 94 119 114 89 4 93 118 119 94 4 88 113 118 93 31 6 4 90 95 96 91 4 116 121 120 115 4 91 116 115 90 4 96 121 116 91 4 95 120 121 96 4 90 115 120 95 31 6 4 91 96 97 92 4 117 122 121 116 4 92 117 116 91 4 97 122 117 92 4 96 121 122 97 4 91 116 121 96 31 6 4 92 97 98 93 4 118 123 122 117 4 93 118 117 92 4 98 123 118 93 4 97 122 123 98 4 92 117 122 97 31 6 4 93 98 99 94 4 119 124 123 118 4 94 119 118 93 4 99 124 119 94 4 98 123 124 99 4 93 118 123 98 
CELL_TYPES 64
42 42 42 42 42 42 42 42 42 42 42 42 42 42 42 42 42 42 42 42 42 42 42 42 42 42 42 42 42 42 42 42 42 42 42 42 42 42 42 42 42 42 42 42 42 42 42 42 42 42 42 42 42 42 42 42 42 42 42 42 42 42 42 42 
POINT_DATA 125
CELL_DATA 64
SCALARS cell_data double 1
LOOKUP_TABLE default
0.046875 0.171875 0.421875 0.796875 0.171875 0.296875 0.546875 0.921875 0.421875 0.546875 0.796875 1.17188 0.796875 0.921875 1.17188 1.54688 0.171875 0.296875 0.546875 0.921875 0.296875 0.421875 0.671875 1.04688 0.546875 0.671875 0.921875 1.29688 0.921875 1.04688 1.29688 1.67188 0.421875 0.546875 0.796875 1.17188 0.546875 0.671875 0.921875 1.29688 0.796875 0.921875 1.17188 1.54688 1.17188 1.29688 1.54688 1.92188 0.796875 0.921875 1.17188 1.54688 0.921875 1.04688 1.29688 1.67188 1.17188 1.29688 1.54688 1.92188 1.54688 1.67188 1.92188 2.29688 
